+ 0.1 1 2 cbr 1000 ------- 2 1.0 3.1 0 0
- 0.1 1 2 cbr 1000 ------- 2 1.0 3.1 0 0
+ 0.108 1 2 cbr 1000 ------- 2 1.0 3.1 1 1
- 0.108 1 2 cbr 1000 ------- 2 1.0 3.1 1 1
r 0.115333 1 2 cbr 1000 ------- 2 1.0 3.1 0 0
+ 0.115333 2 3 cbr 1000 ------- 2 1.0 3.1 0 0
- 0.115333 2 3 cbr 1000 ------- 2 1.0 3.1 0 0
+ 0.116 1 2 cbr 1000 ------- 2 1.0 3.1 2 2
- 0.116 1 2 cbr 1000 ------- 2 1.0 3.1 2 2
r 0.123333 1 2 cbr 1000 ------- 2 1.0 3.1 1 1
+ 0.123333 2 3 cbr 1000 ------- 2 1.0 3.1 1 1
- 0.123333 2 3 cbr 1000 ------- 2 1.0 3.1 1 1
+ 0.124 1 2 cbr 1000 ------- 2 1.0 3.1 3 3
- 0.124 1 2 cbr 1000 ------- 2 1.0 3.1 3 3
r 0.130667 2 3 cbr 1000 ------- 2 1.0 3.1 0 0
r 0.131333 1 2 cbr 1000 ------- 2 1.0 3.1 2 2
+ 0.131333 2 3 cbr 1000 ------- 2 1.0 3.1 2 2
- 0.131333 2 3 cbr 1000 ------- 2 1.0 3.1 2 2
+ 0.132 1 2 cbr 1000 ------- 2 1.0 3.1 4 4
- 0.132 1 2 cbr 1000 ------- 2 1.0 3.1 4 4
r 0.138667 2 3 cbr 1000 ------- 2 1.0 3.1 1 1
r 0.139333 1 2 cbr 1000 ------- 2 1.0 3.1 3 3
+ 0.139333 2 3 cbr 1000 ------- 2 1.0 3.1 3 3
- 0.139333 2 3 cbr 1000 ------- 2 1.0 3.1 3 3
+ 0.14 1 2 cbr 1000 ------- 2 1.0 3.1 5 5
- 0.14 1 2 cbr 1000 ------- 2 1.0 3.1 5 5
r 0.146667 2 3 cbr 1000 ------- 2 1.0 3.1 2 2
r 0.147333 1 2 cbr 1000 ------- 2 1.0 3.1 4 4
+ 0.147333 2 3 cbr 1000 ------- 2 1.0 3.1 4 4
- 0.147333 2 3 cbr 1000 ------- 2 1.0 3.1 4 4
+ 0.148 1 2 cbr 1000 ------- 2 1.0 3.1 6 6
- 0.148 1 2 cbr 1000 ------- 2 1.0 3.1 6 6
r 0.154667 2 3 cbr 1000 ------- 2 1.0 3.1 3 3
r 0.155333 1 2 cbr 1000 ------- 2 1.0 3.1 5 5
+ 0.155333 2 3 cbr 1000 ------- 2 1.0 3.1 5 5
- 0.155333 2 3 cbr 1000 ------- 2 1.0 3.1 5 5
+ 0.156 1 2 cbr 1000 ------- 2 1.0 3.1 7 7
- 0.156 1 2 cbr 1000 ------- 2 1.0 3.1 7 7
r 0.162667 2 3 cbr 1000 ------- 2 1.0 3.1 4 4
r 0.163333 1 2 cbr 1000 ------- 2 1.0 3.1 6 6
+ 0.163333 2 3 cbr 1000 ------- 2 1.0 3.1 6 6
- 0.163333 2 3 cbr 1000 ------- 2 1.0 3.1 6 6
+ 0.164 1 2 cbr 1000 ------- 2 1.0 3.1 8 8
- 0.164 1 2 cbr 1000 ------- 2 1.0 3.1 8 8
r 0.170667 2 3 cbr 1000 ------- 2 1.0 3.1 5 5
r 0.171333 1 2 cbr 1000 ------- 2 1.0 3.1 7 7
+ 0.171333 2 3 cbr 1000 ------- 2 1.0 3.1 7 7
- 0.171333 2 3 cbr 1000 ------- 2 1.0 3.1 7 7
+ 0.172 1 2 cbr 1000 ------- 2 1.0 3.1 9 9
- 0.172 1 2 cbr 1000 ------- 2 1.0 3.1 9 9
r 0.178667 2 3 cbr 1000 ------- 2 1.0 3.1 6 6
r 0.179333 1 2 cbr 1000 ------- 2 1.0 3.1 8 8
+ 0.179333 2 3 cbr 1000 ------- 2 1.0 3.1 8 8
- 0.179333 2 3 cbr 1000 ------- 2 1.0 3.1 8 8
+ 0.18 1 2 cbr 1000 ------- 2 1.0 3.1 10 10
- 0.18 1 2 cbr 1000 ------- 2 1.0 3.1 10 10
r 0.186667 2 3 cbr 1000 ------- 2 1.0 3.1 7 7
r 0.187333 1 2 cbr 1000 ------- 2 1.0 3.1 9 9
+ 0.187333 2 3 cbr 1000 ------- 2 1.0 3.1 9 9
- 0.187333 2 3 cbr 1000 ------- 2 1.0 3.1 9 9
+ 0.188 1 2 cbr 1000 ------- 2 1.0 3.1 11 11
- 0.188 1 2 cbr 1000 ------- 2 1.0 3.1 11 11
r 0.194667 2 3 cbr 1000 ------- 2 1.0 3.1 8 8
r 0.195333 1 2 cbr 1000 ------- 2 1.0 3.1 10 10
+ 0.195333 2 3 cbr 1000 ------- 2 1.0 3.1 10 10
- 0.195333 2 3 cbr 1000 ------- 2 1.0 3.1 10 10
+ 0.196 1 2 cbr 1000 ------- 2 1.0 3.1 12 12
- 0.196 1 2 cbr 1000 ------- 2 1.0 3.1 12 12
r 0.202667 2 3 cbr 1000 ------- 2 1.0 3.1 9 9
r 0.203333 1 2 cbr 1000 ------- 2 1.0 3.1 11 11
+ 0.203333 2 3 cbr 1000 ------- 2 1.0 3.1 11 11
- 0.203333 2 3 cbr 1000 ------- 2 1.0 3.1 11 11
+ 0.204 1 2 cbr 1000 ------- 2 1.0 3.1 13 13
- 0.204 1 2 cbr 1000 ------- 2 1.0 3.1 13 13
r 0.210667 2 3 cbr 1000 ------- 2 1.0 3.1 10 10
r 0.211333 1 2 cbr 1000 ------- 2 1.0 3.1 12 12
+ 0.211333 2 3 cbr 1000 ------- 2 1.0 3.1 12 12
- 0.211333 2 3 cbr 1000 ------- 2 1.0 3.1 12 12
+ 0.212 1 2 cbr 1000 ------- 2 1.0 3.1 14 14
- 0.212 1 2 cbr 1000 ------- 2 1.0 3.1 14 14
r 0.218667 2 3 cbr 1000 ------- 2 1.0 3.1 11 11
r 0.219333 1 2 cbr 1000 ------- 2 1.0 3.1 13 13
+ 0.219333 2 3 cbr 1000 ------- 2 1.0 3.1 13 13
- 0.219333 2 3 cbr 1000 ------- 2 1.0 3.1 13 13
+ 0.22 1 2 cbr 1000 ------- 2 1.0 3.1 15 15
- 0.22 1 2 cbr 1000 ------- 2 1.0 3.1 15 15
r 0.226667 2 3 cbr 1000 ------- 2 1.0 3.1 12 12
r 0.227333 1 2 cbr 1000 ------- 2 1.0 3.1 14 14
+ 0.227333 2 3 cbr 1000 ------- 2 1.0 3.1 14 14
- 0.227333 2 3 cbr 1000 ------- 2 1.0 3.1 14 14
+ 0.228 1 2 cbr 1000 ------- 2 1.0 3.1 16 16
- 0.228 1 2 cbr 1000 ------- 2 1.0 3.1 16 16
r 0.234667 2 3 cbr 1000 ------- 2 1.0 3.1 13 13
r 0.235333 1 2 cbr 1000 ------- 2 1.0 3.1 15 15
+ 0.235333 2 3 cbr 1000 ------- 2 1.0 3.1 15 15
- 0.235333 2 3 cbr 1000 ------- 2 1.0 3.1 15 15
+ 0.236 1 2 cbr 1000 ------- 2 1.0 3.1 17 17
- 0.236 1 2 cbr 1000 ------- 2 1.0 3.1 17 17
r 0.242667 2 3 cbr 1000 ------- 2 1.0 3.1 14 14
r 0.243333 1 2 cbr 1000 ------- 2 1.0 3.1 16 16
+ 0.243333 2 3 cbr 1000 ------- 2 1.0 3.1 16 16
- 0.243333 2 3 cbr 1000 ------- 2 1.0 3.1 16 16
+ 0.244 1 2 cbr 1000 ------- 2 1.0 3.1 18 18
- 0.244 1 2 cbr 1000 ------- 2 1.0 3.1 18 18
r 0.250667 2 3 cbr 1000 ------- 2 1.0 3.1 15 15
r 0.251333 1 2 cbr 1000 ------- 2 1.0 3.1 17 17
+ 0.251333 2 3 cbr 1000 ------- 2 1.0 3.1 17 17
- 0.251333 2 3 cbr 1000 ------- 2 1.0 3.1 17 17
+ 0.252 1 2 cbr 1000 ------- 2 1.0 3.1 19 19
- 0.252 1 2 cbr 1000 ------- 2 1.0 3.1 19 19
r 0.258667 2 3 cbr 1000 ------- 2 1.0 3.1 16 16
r 0.259333 1 2 cbr 1000 ------- 2 1.0 3.1 18 18
+ 0.259333 2 3 cbr 1000 ------- 2 1.0 3.1 18 18
- 0.259333 2 3 cbr 1000 ------- 2 1.0 3.1 18 18
+ 0.26 1 2 cbr 1000 ------- 2 1.0 3.1 20 20
- 0.26 1 2 cbr 1000 ------- 2 1.0 3.1 20 20
r 0.266667 2 3 cbr 1000 ------- 2 1.0 3.1 17 17
r 0.267333 1 2 cbr 1000 ------- 2 1.0 3.1 19 19
+ 0.267333 2 3 cbr 1000 ------- 2 1.0 3.1 19 19
- 0.267333 2 3 cbr 1000 ------- 2 1.0 3.1 19 19
+ 0.268 1 2 cbr 1000 ------- 2 1.0 3.1 21 21
- 0.268 1 2 cbr 1000 ------- 2 1.0 3.1 21 21
r 0.274667 2 3 cbr 1000 ------- 2 1.0 3.1 18 18
r 0.275333 1 2 cbr 1000 ------- 2 1.0 3.1 20 20
+ 0.275333 2 3 cbr 1000 ------- 2 1.0 3.1 20 20
- 0.275333 2 3 cbr 1000 ------- 2 1.0 3.1 20 20
+ 0.276 1 2 cbr 1000 ------- 2 1.0 3.1 22 22
- 0.276 1 2 cbr 1000 ------- 2 1.0 3.1 22 22
r 0.282667 2 3 cbr 1000 ------- 2 1.0 3.1 19 19
r 0.283333 1 2 cbr 1000 ------- 2 1.0 3.1 21 21
+ 0.283333 2 3 cbr 1000 ------- 2 1.0 3.1 21 21
- 0.283333 2 3 cbr 1000 ------- 2 1.0 3.1 21 21
+ 0.284 1 2 cbr 1000 ------- 2 1.0 3.1 23 23
- 0.284 1 2 cbr 1000 ------- 2 1.0 3.1 23 23
r 0.290667 2 3 cbr 1000 ------- 2 1.0 3.1 20 20
r 0.291333 1 2 cbr 1000 ------- 2 1.0 3.1 22 22
+ 0.291333 2 3 cbr 1000 ------- 2 1.0 3.1 22 22
- 0.291333 2 3 cbr 1000 ------- 2 1.0 3.1 22 22
+ 0.292 1 2 cbr 1000 ------- 2 1.0 3.1 24 24
- 0.292 1 2 cbr 1000 ------- 2 1.0 3.1 24 24
r 0.298667 2 3 cbr 1000 ------- 2 1.0 3.1 21 21
r 0.299333 1 2 cbr 1000 ------- 2 1.0 3.1 23 23
+ 0.299333 2 3 cbr 1000 ------- 2 1.0 3.1 23 23
- 0.299333 2 3 cbr 1000 ------- 2 1.0 3.1 23 23
+ 0.3 1 2 cbr 1000 ------- 2 1.0 3.1 25 25
- 0.3 1 2 cbr 1000 ------- 2 1.0 3.1 25 25
r 0.306667 2 3 cbr 1000 ------- 2 1.0 3.1 22 22
r 0.307333 1 2 cbr 1000 ------- 2 1.0 3.1 24 24
+ 0.307333 2 3 cbr 1000 ------- 2 1.0 3.1 24 24
- 0.307333 2 3 cbr 1000 ------- 2 1.0 3.1 24 24
+ 0.308 1 2 cbr 1000 ------- 2 1.0 3.1 26 26
- 0.308 1 2 cbr 1000 ------- 2 1.0 3.1 26 26
r 0.314667 2 3 cbr 1000 ------- 2 1.0 3.1 23 23
r 0.315333 1 2 cbr 1000 ------- 2 1.0 3.1 25 25
+ 0.315333 2 3 cbr 1000 ------- 2 1.0 3.1 25 25
- 0.315333 2 3 cbr 1000 ------- 2 1.0 3.1 25 25
+ 0.316 1 2 cbr 1000 ------- 2 1.0 3.1 27 27
- 0.316 1 2 cbr 1000 ------- 2 1.0 3.1 27 27
r 0.322667 2 3 cbr 1000 ------- 2 1.0 3.1 24 24
r 0.323333 1 2 cbr 1000 ------- 2 1.0 3.1 26 26
+ 0.323333 2 3 cbr 1000 ------- 2 1.0 3.1 26 26
- 0.323333 2 3 cbr 1000 ------- 2 1.0 3.1 26 26
+ 0.324 1 2 cbr 1000 ------- 2 1.0 3.1 28 28
- 0.324 1 2 cbr 1000 ------- 2 1.0 3.1 28 28
r 0.330667 2 3 cbr 1000 ------- 2 1.0 3.1 25 25
r 0.331333 1 2 cbr 1000 ------- 2 1.0 3.1 27 27
+ 0.331333 2 3 cbr 1000 ------- 2 1.0 3.1 27 27
- 0.331333 2 3 cbr 1000 ------- 2 1.0 3.1 27 27
+ 0.332 1 2 cbr 1000 ------- 2 1.0 3.1 29 29
- 0.332 1 2 cbr 1000 ------- 2 1.0 3.1 29 29
r 0.338667 2 3 cbr 1000 ------- 2 1.0 3.1 26 26
r 0.339333 1 2 cbr 1000 ------- 2 1.0 3.1 28 28
+ 0.339333 2 3 cbr 1000 ------- 2 1.0 3.1 28 28
- 0.339333 2 3 cbr 1000 ------- 2 1.0 3.1 28 28
+ 0.34 1 2 cbr 1000 ------- 2 1.0 3.1 30 30
- 0.34 1 2 cbr 1000 ------- 2 1.0 3.1 30 30
r 0.346667 2 3 cbr 1000 ------- 2 1.0 3.1 27 27
r 0.347333 1 2 cbr 1000 ------- 2 1.0 3.1 29 29
+ 0.347333 2 3 cbr 1000 ------- 2 1.0 3.1 29 29
- 0.347333 2 3 cbr 1000 ------- 2 1.0 3.1 29 29
+ 0.348 1 2 cbr 1000 ------- 2 1.0 3.1 31 31
- 0.348 1 2 cbr 1000 ------- 2 1.0 3.1 31 31
r 0.354667 2 3 cbr 1000 ------- 2 1.0 3.1 28 28
r 0.355333 1 2 cbr 1000 ------- 2 1.0 3.1 30 30
+ 0.355333 2 3 cbr 1000 ------- 2 1.0 3.1 30 30
- 0.355333 2 3 cbr 1000 ------- 2 1.0 3.1 30 30
+ 0.356 1 2 cbr 1000 ------- 2 1.0 3.1 32 32
- 0.356 1 2 cbr 1000 ------- 2 1.0 3.1 32 32
r 0.362667 2 3 cbr 1000 ------- 2 1.0 3.1 29 29
r 0.363333 1 2 cbr 1000 ------- 2 1.0 3.1 31 31
+ 0.363333 2 3 cbr 1000 ------- 2 1.0 3.1 31 31
- 0.363333 2 3 cbr 1000 ------- 2 1.0 3.1 31 31
+ 0.364 1 2 cbr 1000 ------- 2 1.0 3.1 33 33
- 0.364 1 2 cbr 1000 ------- 2 1.0 3.1 33 33
r 0.370667 2 3 cbr 1000 ------- 2 1.0 3.1 30 30
r 0.371333 1 2 cbr 1000 ------- 2 1.0 3.1 32 32
+ 0.371333 2 3 cbr 1000 ------- 2 1.0 3.1 32 32
- 0.371333 2 3 cbr 1000 ------- 2 1.0 3.1 32 32
+ 0.372 1 2 cbr 1000 ------- 2 1.0 3.1 34 34
- 0.372 1 2 cbr 1000 ------- 2 1.0 3.1 34 34
r 0.378667 2 3 cbr 1000 ------- 2 1.0 3.1 31 31
r 0.379333 1 2 cbr 1000 ------- 2 1.0 3.1 33 33
+ 0.379333 2 3 cbr 1000 ------- 2 1.0 3.1 33 33
- 0.379333 2 3 cbr 1000 ------- 2 1.0 3.1 33 33
+ 0.38 1 2 cbr 1000 ------- 2 1.0 3.1 35 35
- 0.38 1 2 cbr 1000 ------- 2 1.0 3.1 35 35
r 0.386667 2 3 cbr 1000 ------- 2 1.0 3.1 32 32
r 0.387333 1 2 cbr 1000 ------- 2 1.0 3.1 34 34
+ 0.387333 2 3 cbr 1000 ------- 2 1.0 3.1 34 34
- 0.387333 2 3 cbr 1000 ------- 2 1.0 3.1 34 34
+ 0.388 1 2 cbr 1000 ------- 2 1.0 3.1 36 36
- 0.388 1 2 cbr 1000 ------- 2 1.0 3.1 36 36
r 0.394667 2 3 cbr 1000 ------- 2 1.0 3.1 33 33
r 0.395333 1 2 cbr 1000 ------- 2 1.0 3.1 35 35
+ 0.395333 2 3 cbr 1000 ------- 2 1.0 3.1 35 35
- 0.395333 2 3 cbr 1000 ------- 2 1.0 3.1 35 35
+ 0.396 1 2 cbr 1000 ------- 2 1.0 3.1 37 37
- 0.396 1 2 cbr 1000 ------- 2 1.0 3.1 37 37
r 0.402667 2 3 cbr 1000 ------- 2 1.0 3.1 34 34
r 0.403333 1 2 cbr 1000 ------- 2 1.0 3.1 36 36
+ 0.403333 2 3 cbr 1000 ------- 2 1.0 3.1 36 36
- 0.403333 2 3 cbr 1000 ------- 2 1.0 3.1 36 36
+ 0.404 1 2 cbr 1000 ------- 2 1.0 3.1 38 38
- 0.404 1 2 cbr 1000 ------- 2 1.0 3.1 38 38
r 0.410667 2 3 cbr 1000 ------- 2 1.0 3.1 35 35
r 0.411333 1 2 cbr 1000 ------- 2 1.0 3.1 37 37
+ 0.411333 2 3 cbr 1000 ------- 2 1.0 3.1 37 37
- 0.411333 2 3 cbr 1000 ------- 2 1.0 3.1 37 37
+ 0.412 1 2 cbr 1000 ------- 2 1.0 3.1 39 39
- 0.412 1 2 cbr 1000 ------- 2 1.0 3.1 39 39
r 0.418667 2 3 cbr 1000 ------- 2 1.0 3.1 36 36
r 0.419333 1 2 cbr 1000 ------- 2 1.0 3.1 38 38
+ 0.419333 2 3 cbr 1000 ------- 2 1.0 3.1 38 38
- 0.419333 2 3 cbr 1000 ------- 2 1.0 3.1 38 38
+ 0.42 1 2 cbr 1000 ------- 2 1.0 3.1 40 40
- 0.42 1 2 cbr 1000 ------- 2 1.0 3.1 40 40
r 0.426667 2 3 cbr 1000 ------- 2 1.0 3.1 37 37
r 0.427333 1 2 cbr 1000 ------- 2 1.0 3.1 39 39
+ 0.427333 2 3 cbr 1000 ------- 2 1.0 3.1 39 39
- 0.427333 2 3 cbr 1000 ------- 2 1.0 3.1 39 39
+ 0.428 1 2 cbr 1000 ------- 2 1.0 3.1 41 41
- 0.428 1 2 cbr 1000 ------- 2 1.0 3.1 41 41
r 0.434667 2 3 cbr 1000 ------- 2 1.0 3.1 38 38
r 0.435333 1 2 cbr 1000 ------- 2 1.0 3.1 40 40
+ 0.435333 2 3 cbr 1000 ------- 2 1.0 3.1 40 40
- 0.435333 2 3 cbr 1000 ------- 2 1.0 3.1 40 40
+ 0.436 1 2 cbr 1000 ------- 2 1.0 3.1 42 42
- 0.436 1 2 cbr 1000 ------- 2 1.0 3.1 42 42
r 0.442667 2 3 cbr 1000 ------- 2 1.0 3.1 39 39
r 0.443333 1 2 cbr 1000 ------- 2 1.0 3.1 41 41
+ 0.443333 2 3 cbr 1000 ------- 2 1.0 3.1 41 41
- 0.443333 2 3 cbr 1000 ------- 2 1.0 3.1 41 41
+ 0.444 1 2 cbr 1000 ------- 2 1.0 3.1 43 43
- 0.444 1 2 cbr 1000 ------- 2 1.0 3.1 43 43
r 0.450667 2 3 cbr 1000 ------- 2 1.0 3.1 40 40
r 0.451333 1 2 cbr 1000 ------- 2 1.0 3.1 42 42
+ 0.451333 2 3 cbr 1000 ------- 2 1.0 3.1 42 42
- 0.451333 2 3 cbr 1000 ------- 2 1.0 3.1 42 42
+ 0.452 1 2 cbr 1000 ------- 2 1.0 3.1 44 44
- 0.452 1 2 cbr 1000 ------- 2 1.0 3.1 44 44
r 0.458667 2 3 cbr 1000 ------- 2 1.0 3.1 41 41
r 0.459333 1 2 cbr 1000 ------- 2 1.0 3.1 43 43
+ 0.459333 2 3 cbr 1000 ------- 2 1.0 3.1 43 43
- 0.459333 2 3 cbr 1000 ------- 2 1.0 3.1 43 43
+ 0.46 1 2 cbr 1000 ------- 2 1.0 3.1 45 45
- 0.46 1 2 cbr 1000 ------- 2 1.0 3.1 45 45
r 0.466667 2 3 cbr 1000 ------- 2 1.0 3.1 42 42
r 0.467333 1 2 cbr 1000 ------- 2 1.0 3.1 44 44
+ 0.467333 2 3 cbr 1000 ------- 2 1.0 3.1 44 44
- 0.467333 2 3 cbr 1000 ------- 2 1.0 3.1 44 44
+ 0.468 1 2 cbr 1000 ------- 2 1.0 3.1 46 46
- 0.468 1 2 cbr 1000 ------- 2 1.0 3.1 46 46
r 0.474667 2 3 cbr 1000 ------- 2 1.0 3.1 43 43
r 0.475333 1 2 cbr 1000 ------- 2 1.0 3.1 45 45
+ 0.475333 2 3 cbr 1000 ------- 2 1.0 3.1 45 45
- 0.475333 2 3 cbr 1000 ------- 2 1.0 3.1 45 45
+ 0.476 1 2 cbr 1000 ------- 2 1.0 3.1 47 47
- 0.476 1 2 cbr 1000 ------- 2 1.0 3.1 47 47
r 0.482667 2 3 cbr 1000 ------- 2 1.0 3.1 44 44
r 0.483333 1 2 cbr 1000 ------- 2 1.0 3.1 46 46
+ 0.483333 2 3 cbr 1000 ------- 2 1.0 3.1 46 46
- 0.483333 2 3 cbr 1000 ------- 2 1.0 3.1 46 46
+ 0.484 1 2 cbr 1000 ------- 2 1.0 3.1 48 48
- 0.484 1 2 cbr 1000 ------- 2 1.0 3.1 48 48
r 0.490667 2 3 cbr 1000 ------- 2 1.0 3.1 45 45
r 0.491333 1 2 cbr 1000 ------- 2 1.0 3.1 47 47
+ 0.491333 2 3 cbr 1000 ------- 2 1.0 3.1 47 47
- 0.491333 2 3 cbr 1000 ------- 2 1.0 3.1 47 47
+ 0.492 1 2 cbr 1000 ------- 2 1.0 3.1 49 49
- 0.492 1 2 cbr 1000 ------- 2 1.0 3.1 49 49
r 0.498667 2 3 cbr 1000 ------- 2 1.0 3.1 46 46
r 0.499333 1 2 cbr 1000 ------- 2 1.0 3.1 48 48
+ 0.499333 2 3 cbr 1000 ------- 2 1.0 3.1 48 48
- 0.499333 2 3 cbr 1000 ------- 2 1.0 3.1 48 48
+ 0.5 1 2 cbr 1000 ------- 2 1.0 3.1 50 50
- 0.5 1 2 cbr 1000 ------- 2 1.0 3.1 50 50
r 0.506667 2 3 cbr 1000 ------- 2 1.0 3.1 47 47
r 0.507333 1 2 cbr 1000 ------- 2 1.0 3.1 49 49
+ 0.507333 2 3 cbr 1000 ------- 2 1.0 3.1 49 49
- 0.507333 2 3 cbr 1000 ------- 2 1.0 3.1 49 49
+ 0.508 1 2 cbr 1000 ------- 2 1.0 3.1 51 51
- 0.508 1 2 cbr 1000 ------- 2 1.0 3.1 51 51
r 0.514667 2 3 cbr 1000 ------- 2 1.0 3.1 48 48
r 0.515333 1 2 cbr 1000 ------- 2 1.0 3.1 50 50
+ 0.515333 2 3 cbr 1000 ------- 2 1.0 3.1 50 50
- 0.515333 2 3 cbr 1000 ------- 2 1.0 3.1 50 50
+ 0.516 1 2 cbr 1000 ------- 2 1.0 3.1 52 52
- 0.516 1 2 cbr 1000 ------- 2 1.0 3.1 52 52
r 0.522667 2 3 cbr 1000 ------- 2 1.0 3.1 49 49
r 0.523333 1 2 cbr 1000 ------- 2 1.0 3.1 51 51
+ 0.523333 2 3 cbr 1000 ------- 2 1.0 3.1 51 51
- 0.523333 2 3 cbr 1000 ------- 2 1.0 3.1 51 51
+ 0.524 1 2 cbr 1000 ------- 2 1.0 3.1 53 53
- 0.524 1 2 cbr 1000 ------- 2 1.0 3.1 53 53
r 0.530667 2 3 cbr 1000 ------- 2 1.0 3.1 50 50
r 0.531333 1 2 cbr 1000 ------- 2 1.0 3.1 52 52
+ 0.531333 2 3 cbr 1000 ------- 2 1.0 3.1 52 52
- 0.531333 2 3 cbr 1000 ------- 2 1.0 3.1 52 52
+ 0.532 1 2 cbr 1000 ------- 2 1.0 3.1 54 54
- 0.532 1 2 cbr 1000 ------- 2 1.0 3.1 54 54
r 0.538667 2 3 cbr 1000 ------- 2 1.0 3.1 51 51
r 0.539333 1 2 cbr 1000 ------- 2 1.0 3.1 53 53
+ 0.539333 2 3 cbr 1000 ------- 2 1.0 3.1 53 53
- 0.539333 2 3 cbr 1000 ------- 2 1.0 3.1 53 53
+ 0.54 1 2 cbr 1000 ------- 2 1.0 3.1 55 55
- 0.54 1 2 cbr 1000 ------- 2 1.0 3.1 55 55
r 0.546667 2 3 cbr 1000 ------- 2 1.0 3.1 52 52
r 0.547333 1 2 cbr 1000 ------- 2 1.0 3.1 54 54
+ 0.547333 2 3 cbr 1000 ------- 2 1.0 3.1 54 54
- 0.547333 2 3 cbr 1000 ------- 2 1.0 3.1 54 54
+ 0.548 1 2 cbr 1000 ------- 2 1.0 3.1 56 56
- 0.548 1 2 cbr 1000 ------- 2 1.0 3.1 56 56
r 0.554667 2 3 cbr 1000 ------- 2 1.0 3.1 53 53
r 0.555333 1 2 cbr 1000 ------- 2 1.0 3.1 55 55
+ 0.555333 2 3 cbr 1000 ------- 2 1.0 3.1 55 55
- 0.555333 2 3 cbr 1000 ------- 2 1.0 3.1 55 55
+ 0.556 1 2 cbr 1000 ------- 2 1.0 3.1 57 57
- 0.556 1 2 cbr 1000 ------- 2 1.0 3.1 57 57
r 0.562667 2 3 cbr 1000 ------- 2 1.0 3.1 54 54
r 0.563333 1 2 cbr 1000 ------- 2 1.0 3.1 56 56
+ 0.563333 2 3 cbr 1000 ------- 2 1.0 3.1 56 56
- 0.563333 2 3 cbr 1000 ------- 2 1.0 3.1 56 56
+ 0.564 1 2 cbr 1000 ------- 2 1.0 3.1 58 58
- 0.564 1 2 cbr 1000 ------- 2 1.0 3.1 58 58
r 0.570667 2 3 cbr 1000 ------- 2 1.0 3.1 55 55
r 0.571333 1 2 cbr 1000 ------- 2 1.0 3.1 57 57
+ 0.571333 2 3 cbr 1000 ------- 2 1.0 3.1 57 57
- 0.571333 2 3 cbr 1000 ------- 2 1.0 3.1 57 57
+ 0.572 1 2 cbr 1000 ------- 2 1.0 3.1 59 59
- 0.572 1 2 cbr 1000 ------- 2 1.0 3.1 59 59
r 0.578667 2 3 cbr 1000 ------- 2 1.0 3.1 56 56
r 0.579333 1 2 cbr 1000 ------- 2 1.0 3.1 58 58
+ 0.579333 2 3 cbr 1000 ------- 2 1.0 3.1 58 58
- 0.579333 2 3 cbr 1000 ------- 2 1.0 3.1 58 58
+ 0.58 1 2 cbr 1000 ------- 2 1.0 3.1 60 60
- 0.58 1 2 cbr 1000 ------- 2 1.0 3.1 60 60
r 0.586667 2 3 cbr 1000 ------- 2 1.0 3.1 57 57
r 0.587333 1 2 cbr 1000 ------- 2 1.0 3.1 59 59
+ 0.587333 2 3 cbr 1000 ------- 2 1.0 3.1 59 59
- 0.587333 2 3 cbr 1000 ------- 2 1.0 3.1 59 59
+ 0.588 1 2 cbr 1000 ------- 2 1.0 3.1 61 61
- 0.588 1 2 cbr 1000 ------- 2 1.0 3.1 61 61
r 0.594667 2 3 cbr 1000 ------- 2 1.0 3.1 58 58
r 0.595333 1 2 cbr 1000 ------- 2 1.0 3.1 60 60
+ 0.595333 2 3 cbr 1000 ------- 2 1.0 3.1 60 60
- 0.595333 2 3 cbr 1000 ------- 2 1.0 3.1 60 60
+ 0.596 1 2 cbr 1000 ------- 2 1.0 3.1 62 62
- 0.596 1 2 cbr 1000 ------- 2 1.0 3.1 62 62
r 0.602667 2 3 cbr 1000 ------- 2 1.0 3.1 59 59
r 0.603333 1 2 cbr 1000 ------- 2 1.0 3.1 61 61
+ 0.603333 2 3 cbr 1000 ------- 2 1.0 3.1 61 61
- 0.603333 2 3 cbr 1000 ------- 2 1.0 3.1 61 61
+ 0.604 1 2 cbr 1000 ------- 2 1.0 3.1 63 63
- 0.604 1 2 cbr 1000 ------- 2 1.0 3.1 63 63
r 0.610667 2 3 cbr 1000 ------- 2 1.0 3.1 60 60
r 0.611333 1 2 cbr 1000 ------- 2 1.0 3.1 62 62
+ 0.611333 2 3 cbr 1000 ------- 2 1.0 3.1 62 62
- 0.611333 2 3 cbr 1000 ------- 2 1.0 3.1 62 62
+ 0.612 1 2 cbr 1000 ------- 2 1.0 3.1 64 64
- 0.612 1 2 cbr 1000 ------- 2 1.0 3.1 64 64
r 0.618667 2 3 cbr 1000 ------- 2 1.0 3.1 61 61
r 0.619333 1 2 cbr 1000 ------- 2 1.0 3.1 63 63
+ 0.619333 2 3 cbr 1000 ------- 2 1.0 3.1 63 63
- 0.619333 2 3 cbr 1000 ------- 2 1.0 3.1 63 63
+ 0.62 1 2 cbr 1000 ------- 2 1.0 3.1 65 65
- 0.62 1 2 cbr 1000 ------- 2 1.0 3.1 65 65
r 0.626667 2 3 cbr 1000 ------- 2 1.0 3.1 62 62
r 0.627333 1 2 cbr 1000 ------- 2 1.0 3.1 64 64
+ 0.627333 2 3 cbr 1000 ------- 2 1.0 3.1 64 64
- 0.627333 2 3 cbr 1000 ------- 2 1.0 3.1 64 64
+ 0.628 1 2 cbr 1000 ------- 2 1.0 3.1 66 66
- 0.628 1 2 cbr 1000 ------- 2 1.0 3.1 66 66
r 0.634667 2 3 cbr 1000 ------- 2 1.0 3.1 63 63
r 0.635333 1 2 cbr 1000 ------- 2 1.0 3.1 65 65
+ 0.635333 2 3 cbr 1000 ------- 2 1.0 3.1 65 65
- 0.635333 2 3 cbr 1000 ------- 2 1.0 3.1 65 65
+ 0.636 1 2 cbr 1000 ------- 2 1.0 3.1 67 67
- 0.636 1 2 cbr 1000 ------- 2 1.0 3.1 67 67
r 0.642667 2 3 cbr 1000 ------- 2 1.0 3.1 64 64
r 0.643333 1 2 cbr 1000 ------- 2 1.0 3.1 66 66
+ 0.643333 2 3 cbr 1000 ------- 2 1.0 3.1 66 66
- 0.643333 2 3 cbr 1000 ------- 2 1.0 3.1 66 66
+ 0.644 1 2 cbr 1000 ------- 2 1.0 3.1 68 68
- 0.644 1 2 cbr 1000 ------- 2 1.0 3.1 68 68
r 0.650667 2 3 cbr 1000 ------- 2 1.0 3.1 65 65
r 0.651333 1 2 cbr 1000 ------- 2 1.0 3.1 67 67
+ 0.651333 2 3 cbr 1000 ------- 2 1.0 3.1 67 67
- 0.651333 2 3 cbr 1000 ------- 2 1.0 3.1 67 67
+ 0.652 1 2 cbr 1000 ------- 2 1.0 3.1 69 69
- 0.652 1 2 cbr 1000 ------- 2 1.0 3.1 69 69
r 0.658667 2 3 cbr 1000 ------- 2 1.0 3.1 66 66
r 0.659333 1 2 cbr 1000 ------- 2 1.0 3.1 68 68
+ 0.659333 2 3 cbr 1000 ------- 2 1.0 3.1 68 68
- 0.659333 2 3 cbr 1000 ------- 2 1.0 3.1 68 68
+ 0.66 1 2 cbr 1000 ------- 2 1.0 3.1 70 70
- 0.66 1 2 cbr 1000 ------- 2 1.0 3.1 70 70
r 0.666667 2 3 cbr 1000 ------- 2 1.0 3.1 67 67
r 0.667333 1 2 cbr 1000 ------- 2 1.0 3.1 69 69
+ 0.667333 2 3 cbr 1000 ------- 2 1.0 3.1 69 69
- 0.667333 2 3 cbr 1000 ------- 2 1.0 3.1 69 69
+ 0.668 1 2 cbr 1000 ------- 2 1.0 3.1 71 71
- 0.668 1 2 cbr 1000 ------- 2 1.0 3.1 71 71
r 0.674667 2 3 cbr 1000 ------- 2 1.0 3.1 68 68
r 0.675333 1 2 cbr 1000 ------- 2 1.0 3.1 70 70
+ 0.675333 2 3 cbr 1000 ------- 2 1.0 3.1 70 70
- 0.675333 2 3 cbr 1000 ------- 2 1.0 3.1 70 70
+ 0.676 1 2 cbr 1000 ------- 2 1.0 3.1 72 72
- 0.676 1 2 cbr 1000 ------- 2 1.0 3.1 72 72
r 0.682667 2 3 cbr 1000 ------- 2 1.0 3.1 69 69
r 0.683333 1 2 cbr 1000 ------- 2 1.0 3.1 71 71
+ 0.683333 2 3 cbr 1000 ------- 2 1.0 3.1 71 71
- 0.683333 2 3 cbr 1000 ------- 2 1.0 3.1 71 71
+ 0.684 1 2 cbr 1000 ------- 2 1.0 3.1 73 73
- 0.684 1 2 cbr 1000 ------- 2 1.0 3.1 73 73
r 0.690667 2 3 cbr 1000 ------- 2 1.0 3.1 70 70
r 0.691333 1 2 cbr 1000 ------- 2 1.0 3.1 72 72
+ 0.691333 2 3 cbr 1000 ------- 2 1.0 3.1 72 72
- 0.691333 2 3 cbr 1000 ------- 2 1.0 3.1 72 72
+ 0.692 1 2 cbr 1000 ------- 2 1.0 3.1 74 74
- 0.692 1 2 cbr 1000 ------- 2 1.0 3.1 74 74
r 0.698667 2 3 cbr 1000 ------- 2 1.0 3.1 71 71
r 0.699333 1 2 cbr 1000 ------- 2 1.0 3.1 73 73
+ 0.699333 2 3 cbr 1000 ------- 2 1.0 3.1 73 73
- 0.699333 2 3 cbr 1000 ------- 2 1.0 3.1 73 73
+ 0.7 1 2 cbr 1000 ------- 2 1.0 3.1 75 75
- 0.7 1 2 cbr 1000 ------- 2 1.0 3.1 75 75
r 0.706667 2 3 cbr 1000 ------- 2 1.0 3.1 72 72
r 0.707333 1 2 cbr 1000 ------- 2 1.0 3.1 74 74
+ 0.707333 2 3 cbr 1000 ------- 2 1.0 3.1 74 74
- 0.707333 2 3 cbr 1000 ------- 2 1.0 3.1 74 74
+ 0.708 1 2 cbr 1000 ------- 2 1.0 3.1 76 76
- 0.708 1 2 cbr 1000 ------- 2 1.0 3.1 76 76
r 0.714667 2 3 cbr 1000 ------- 2 1.0 3.1 73 73
r 0.715333 1 2 cbr 1000 ------- 2 1.0 3.1 75 75
+ 0.715333 2 3 cbr 1000 ------- 2 1.0 3.1 75 75
- 0.715333 2 3 cbr 1000 ------- 2 1.0 3.1 75 75
+ 0.716 1 2 cbr 1000 ------- 2 1.0 3.1 77 77
- 0.716 1 2 cbr 1000 ------- 2 1.0 3.1 77 77
r 0.722667 2 3 cbr 1000 ------- 2 1.0 3.1 74 74
r 0.723333 1 2 cbr 1000 ------- 2 1.0 3.1 76 76
+ 0.723333 2 3 cbr 1000 ------- 2 1.0 3.1 76 76
- 0.723333 2 3 cbr 1000 ------- 2 1.0 3.1 76 76
+ 0.724 1 2 cbr 1000 ------- 2 1.0 3.1 78 78
- 0.724 1 2 cbr 1000 ------- 2 1.0 3.1 78 78
r 0.730667 2 3 cbr 1000 ------- 2 1.0 3.1 75 75
r 0.731333 1 2 cbr 1000 ------- 2 1.0 3.1 77 77
+ 0.731333 2 3 cbr 1000 ------- 2 1.0 3.1 77 77
- 0.731333 2 3 cbr 1000 ------- 2 1.0 3.1 77 77
+ 0.732 1 2 cbr 1000 ------- 2 1.0 3.1 79 79
- 0.732 1 2 cbr 1000 ------- 2 1.0 3.1 79 79
r 0.738667 2 3 cbr 1000 ------- 2 1.0 3.1 76 76
r 0.739333 1 2 cbr 1000 ------- 2 1.0 3.1 78 78
+ 0.739333 2 3 cbr 1000 ------- 2 1.0 3.1 78 78
- 0.739333 2 3 cbr 1000 ------- 2 1.0 3.1 78 78
+ 0.74 1 2 cbr 1000 ------- 2 1.0 3.1 80 80
- 0.74 1 2 cbr 1000 ------- 2 1.0 3.1 80 80
r 0.746667 2 3 cbr 1000 ------- 2 1.0 3.1 77 77
r 0.747333 1 2 cbr 1000 ------- 2 1.0 3.1 79 79
+ 0.747333 2 3 cbr 1000 ------- 2 1.0 3.1 79 79
- 0.747333 2 3 cbr 1000 ------- 2 1.0 3.1 79 79
+ 0.748 1 2 cbr 1000 ------- 2 1.0 3.1 81 81
- 0.748 1 2 cbr 1000 ------- 2 1.0 3.1 81 81
r 0.754667 2 3 cbr 1000 ------- 2 1.0 3.1 78 78
r 0.755333 1 2 cbr 1000 ------- 2 1.0 3.1 80 80
+ 0.755333 2 3 cbr 1000 ------- 2 1.0 3.1 80 80
- 0.755333 2 3 cbr 1000 ------- 2 1.0 3.1 80 80
+ 0.756 1 2 cbr 1000 ------- 2 1.0 3.1 82 82
- 0.756 1 2 cbr 1000 ------- 2 1.0 3.1 82 82
r 0.762667 2 3 cbr 1000 ------- 2 1.0 3.1 79 79
r 0.763333 1 2 cbr 1000 ------- 2 1.0 3.1 81 81
+ 0.763333 2 3 cbr 1000 ------- 2 1.0 3.1 81 81
- 0.763333 2 3 cbr 1000 ------- 2 1.0 3.1 81 81
+ 0.764 1 2 cbr 1000 ------- 2 1.0 3.1 83 83
- 0.764 1 2 cbr 1000 ------- 2 1.0 3.1 83 83
r 0.770667 2 3 cbr 1000 ------- 2 1.0 3.1 80 80
r 0.771333 1 2 cbr 1000 ------- 2 1.0 3.1 82 82
+ 0.771333 2 3 cbr 1000 ------- 2 1.0 3.1 82 82
- 0.771333 2 3 cbr 1000 ------- 2 1.0 3.1 82 82
+ 0.772 1 2 cbr 1000 ------- 2 1.0 3.1 84 84
- 0.772 1 2 cbr 1000 ------- 2 1.0 3.1 84 84
r 0.778667 2 3 cbr 1000 ------- 2 1.0 3.1 81 81
r 0.779333 1 2 cbr 1000 ------- 2 1.0 3.1 83 83
+ 0.779333 2 3 cbr 1000 ------- 2 1.0 3.1 83 83
- 0.779333 2 3 cbr 1000 ------- 2 1.0 3.1 83 83
+ 0.78 1 2 cbr 1000 ------- 2 1.0 3.1 85 85
- 0.78 1 2 cbr 1000 ------- 2 1.0 3.1 85 85
r 0.786667 2 3 cbr 1000 ------- 2 1.0 3.1 82 82
r 0.787333 1 2 cbr 1000 ------- 2 1.0 3.1 84 84
+ 0.787333 2 3 cbr 1000 ------- 2 1.0 3.1 84 84
- 0.787333 2 3 cbr 1000 ------- 2 1.0 3.1 84 84
+ 0.788 1 2 cbr 1000 ------- 2 1.0 3.1 86 86
- 0.788 1 2 cbr 1000 ------- 2 1.0 3.1 86 86
r 0.794667 2 3 cbr 1000 ------- 2 1.0 3.1 83 83
r 0.795333 1 2 cbr 1000 ------- 2 1.0 3.1 85 85
+ 0.795333 2 3 cbr 1000 ------- 2 1.0 3.1 85 85
- 0.795333 2 3 cbr 1000 ------- 2 1.0 3.1 85 85
+ 0.796 1 2 cbr 1000 ------- 2 1.0 3.1 87 87
- 0.796 1 2 cbr 1000 ------- 2 1.0 3.1 87 87
r 0.802667 2 3 cbr 1000 ------- 2 1.0 3.1 84 84
r 0.803333 1 2 cbr 1000 ------- 2 1.0 3.1 86 86
+ 0.803333 2 3 cbr 1000 ------- 2 1.0 3.1 86 86
- 0.803333 2 3 cbr 1000 ------- 2 1.0 3.1 86 86
+ 0.804 1 2 cbr 1000 ------- 2 1.0 3.1 88 88
- 0.804 1 2 cbr 1000 ------- 2 1.0 3.1 88 88
r 0.810667 2 3 cbr 1000 ------- 2 1.0 3.1 85 85
r 0.811333 1 2 cbr 1000 ------- 2 1.0 3.1 87 87
+ 0.811333 2 3 cbr 1000 ------- 2 1.0 3.1 87 87
- 0.811333 2 3 cbr 1000 ------- 2 1.0 3.1 87 87
+ 0.812 1 2 cbr 1000 ------- 2 1.0 3.1 89 89
- 0.812 1 2 cbr 1000 ------- 2 1.0 3.1 89 89
r 0.818667 2 3 cbr 1000 ------- 2 1.0 3.1 86 86
r 0.819333 1 2 cbr 1000 ------- 2 1.0 3.1 88 88
+ 0.819333 2 3 cbr 1000 ------- 2 1.0 3.1 88 88
- 0.819333 2 3 cbr 1000 ------- 2 1.0 3.1 88 88
+ 0.82 1 2 cbr 1000 ------- 2 1.0 3.1 90 90
- 0.82 1 2 cbr 1000 ------- 2 1.0 3.1 90 90
r 0.826667 2 3 cbr 1000 ------- 2 1.0 3.1 87 87
r 0.827333 1 2 cbr 1000 ------- 2 1.0 3.1 89 89
+ 0.827333 2 3 cbr 1000 ------- 2 1.0 3.1 89 89
- 0.827333 2 3 cbr 1000 ------- 2 1.0 3.1 89 89
+ 0.828 1 2 cbr 1000 ------- 2 1.0 3.1 91 91
- 0.828 1 2 cbr 1000 ------- 2 1.0 3.1 91 91
r 0.834667 2 3 cbr 1000 ------- 2 1.0 3.1 88 88
r 0.835333 1 2 cbr 1000 ------- 2 1.0 3.1 90 90
+ 0.835333 2 3 cbr 1000 ------- 2 1.0 3.1 90 90
- 0.835333 2 3 cbr 1000 ------- 2 1.0 3.1 90 90
+ 0.836 1 2 cbr 1000 ------- 2 1.0 3.1 92 92
- 0.836 1 2 cbr 1000 ------- 2 1.0 3.1 92 92
r 0.842667 2 3 cbr 1000 ------- 2 1.0 3.1 89 89
r 0.843333 1 2 cbr 1000 ------- 2 1.0 3.1 91 91
+ 0.843333 2 3 cbr 1000 ------- 2 1.0 3.1 91 91
- 0.843333 2 3 cbr 1000 ------- 2 1.0 3.1 91 91
+ 0.844 1 2 cbr 1000 ------- 2 1.0 3.1 93 93
- 0.844 1 2 cbr 1000 ------- 2 1.0 3.1 93 93
r 0.850667 2 3 cbr 1000 ------- 2 1.0 3.1 90 90
r 0.851333 1 2 cbr 1000 ------- 2 1.0 3.1 92 92
+ 0.851333 2 3 cbr 1000 ------- 2 1.0 3.1 92 92
- 0.851333 2 3 cbr 1000 ------- 2 1.0 3.1 92 92
+ 0.852 1 2 cbr 1000 ------- 2 1.0 3.1 94 94
- 0.852 1 2 cbr 1000 ------- 2 1.0 3.1 94 94
r 0.858667 2 3 cbr 1000 ------- 2 1.0 3.1 91 91
r 0.859333 1 2 cbr 1000 ------- 2 1.0 3.1 93 93
+ 0.859333 2 3 cbr 1000 ------- 2 1.0 3.1 93 93
- 0.859333 2 3 cbr 1000 ------- 2 1.0 3.1 93 93
+ 0.86 1 2 cbr 1000 ------- 2 1.0 3.1 95 95
- 0.86 1 2 cbr 1000 ------- 2 1.0 3.1 95 95
r 0.866667 2 3 cbr 1000 ------- 2 1.0 3.1 92 92
r 0.867333 1 2 cbr 1000 ------- 2 1.0 3.1 94 94
+ 0.867333 2 3 cbr 1000 ------- 2 1.0 3.1 94 94
- 0.867333 2 3 cbr 1000 ------- 2 1.0 3.1 94 94
+ 0.868 1 2 cbr 1000 ------- 2 1.0 3.1 96 96
- 0.868 1 2 cbr 1000 ------- 2 1.0 3.1 96 96
r 0.874667 2 3 cbr 1000 ------- 2 1.0 3.1 93 93
r 0.875333 1 2 cbr 1000 ------- 2 1.0 3.1 95 95
+ 0.875333 2 3 cbr 1000 ------- 2 1.0 3.1 95 95
- 0.875333 2 3 cbr 1000 ------- 2 1.0 3.1 95 95
+ 0.876 1 2 cbr 1000 ------- 2 1.0 3.1 97 97
- 0.876 1 2 cbr 1000 ------- 2 1.0 3.1 97 97
r 0.882667 2 3 cbr 1000 ------- 2 1.0 3.1 94 94
r 0.883333 1 2 cbr 1000 ------- 2 1.0 3.1 96 96
+ 0.883333 2 3 cbr 1000 ------- 2 1.0 3.1 96 96
- 0.883333 2 3 cbr 1000 ------- 2 1.0 3.1 96 96
+ 0.884 1 2 cbr 1000 ------- 2 1.0 3.1 98 98
- 0.884 1 2 cbr 1000 ------- 2 1.0 3.1 98 98
r 0.890667 2 3 cbr 1000 ------- 2 1.0 3.1 95 95
r 0.891333 1 2 cbr 1000 ------- 2 1.0 3.1 97 97
+ 0.891333 2 3 cbr 1000 ------- 2 1.0 3.1 97 97
- 0.891333 2 3 cbr 1000 ------- 2 1.0 3.1 97 97
+ 0.892 1 2 cbr 1000 ------- 2 1.0 3.1 99 99
- 0.892 1 2 cbr 1000 ------- 2 1.0 3.1 99 99
r 0.898667 2 3 cbr 1000 ------- 2 1.0 3.1 96 96
r 0.899333 1 2 cbr 1000 ------- 2 1.0 3.1 98 98
+ 0.899333 2 3 cbr 1000 ------- 2 1.0 3.1 98 98
- 0.899333 2 3 cbr 1000 ------- 2 1.0 3.1 98 98
+ 0.9 1 2 cbr 1000 ------- 2 1.0 3.1 100 100
- 0.9 1 2 cbr 1000 ------- 2 1.0 3.1 100 100
r 0.906667 2 3 cbr 1000 ------- 2 1.0 3.1 97 97
r 0.907333 1 2 cbr 1000 ------- 2 1.0 3.1 99 99
+ 0.907333 2 3 cbr 1000 ------- 2 1.0 3.1 99 99
- 0.907333 2 3 cbr 1000 ------- 2 1.0 3.1 99 99
+ 0.908 1 2 cbr 1000 ------- 2 1.0 3.1 101 101
- 0.908 1 2 cbr 1000 ------- 2 1.0 3.1 101 101
r 0.914667 2 3 cbr 1000 ------- 2 1.0 3.1 98 98
r 0.915333 1 2 cbr 1000 ------- 2 1.0 3.1 100 100
+ 0.915333 2 3 cbr 1000 ------- 2 1.0 3.1 100 100
- 0.915333 2 3 cbr 1000 ------- 2 1.0 3.1 100 100
+ 0.916 1 2 cbr 1000 ------- 2 1.0 3.1 102 102
- 0.916 1 2 cbr 1000 ------- 2 1.0 3.1 102 102
r 0.922667 2 3 cbr 1000 ------- 2 1.0 3.1 99 99
r 0.923333 1 2 cbr 1000 ------- 2 1.0 3.1 101 101
+ 0.923333 2 3 cbr 1000 ------- 2 1.0 3.1 101 101
- 0.923333 2 3 cbr 1000 ------- 2 1.0 3.1 101 101
+ 0.924 1 2 cbr 1000 ------- 2 1.0 3.1 103 103
- 0.924 1 2 cbr 1000 ------- 2 1.0 3.1 103 103
r 0.930667 2 3 cbr 1000 ------- 2 1.0 3.1 100 100
r 0.931333 1 2 cbr 1000 ------- 2 1.0 3.1 102 102
+ 0.931333 2 3 cbr 1000 ------- 2 1.0 3.1 102 102
- 0.931333 2 3 cbr 1000 ------- 2 1.0 3.1 102 102
+ 0.932 1 2 cbr 1000 ------- 2 1.0 3.1 104 104
- 0.932 1 2 cbr 1000 ------- 2 1.0 3.1 104 104
r 0.938667 2 3 cbr 1000 ------- 2 1.0 3.1 101 101
r 0.939333 1 2 cbr 1000 ------- 2 1.0 3.1 103 103
+ 0.939333 2 3 cbr 1000 ------- 2 1.0 3.1 103 103
- 0.939333 2 3 cbr 1000 ------- 2 1.0 3.1 103 103
+ 0.94 1 2 cbr 1000 ------- 2 1.0 3.1 105 105
- 0.94 1 2 cbr 1000 ------- 2 1.0 3.1 105 105
r 0.946667 2 3 cbr 1000 ------- 2 1.0 3.1 102 102
r 0.947333 1 2 cbr 1000 ------- 2 1.0 3.1 104 104
+ 0.947333 2 3 cbr 1000 ------- 2 1.0 3.1 104 104
- 0.947333 2 3 cbr 1000 ------- 2 1.0 3.1 104 104
+ 0.948 1 2 cbr 1000 ------- 2 1.0 3.1 106 106
- 0.948 1 2 cbr 1000 ------- 2 1.0 3.1 106 106
r 0.954667 2 3 cbr 1000 ------- 2 1.0 3.1 103 103
r 0.955333 1 2 cbr 1000 ------- 2 1.0 3.1 105 105
+ 0.955333 2 3 cbr 1000 ------- 2 1.0 3.1 105 105
- 0.955333 2 3 cbr 1000 ------- 2 1.0 3.1 105 105
+ 0.956 1 2 cbr 1000 ------- 2 1.0 3.1 107 107
- 0.956 1 2 cbr 1000 ------- 2 1.0 3.1 107 107
r 0.962667 2 3 cbr 1000 ------- 2 1.0 3.1 104 104
r 0.963333 1 2 cbr 1000 ------- 2 1.0 3.1 106 106